600
 energy: -1018.346285605858 gnorm: 0.000320464620 xtb: 6.4.1 (afa7bdf)
H         0.20374021820652    3.03117141913035   -0.67804747317944
O         0.72678113798155    2.36288264334020   -1.17108804221284
H         1.66552198341560    2.49181255108324   -0.89727026027114
H        -0.07266185082117   -1.30555830795374    3.15288145665076
O         0.31939262608746   -0.60548880037461    2.60834125491802
H        -0.15843651190391    0.20802237612346    2.84125001870613
H        -2.39558266782838    2.41044862450515   -0.53564888225720
O        -2.18484697777516    1.94012520760060    0.28843579584675
H        -2.20089676140420    0.99220300742086    0.06368638534971
H        -4.65977953935832    0.54753343030954    2.18256926988167
O        -4.97672875687444   -0.38589736946130    2.19584865333538
H        -4.47182124691664   -0.86358657720668    1.52953763698072
H         0.06728909763069   -0.30797648999275    0.95324521585264
O        -0.13012166905541   -0.07163501057310    0.02625200138991
H         0.20909949580709    0.82501562789531   -0.09453186957942
H        -0.15074384424853   -3.57565696574210    3.78071309975703
O        -0.42974788949632   -2.74540594010491    4.20083032072797
H         0.21621788591558   -2.57458519780823    4.90270992478479
H        -4.88359979316791    2.53077809088994    1.33006273057473
O        -4.24413298851948    2.12149736766137    1.94500225529941
H        -3.40136346381120    2.10376483994528    1.43226783217281
H        -3.24587126321956    3.89733235692976   -2.21198947146186
O        -2.50816701981974    3.30056946430951   -1.98086025529194
H        -2.14958188946004    3.01258881597009   -2.84042982117576
H        -0.12148137563660   -3.80435941308171    0.50591406392946
O         0.21838318792316   -2.98675203841071    0.92360613174626
H        -0.56904410348517   -2.50019927040694    1.23510626224458
H        -2.37455478320064   -1.53772311825511    2.47118124353801
O        -2.18548441641442   -2.00409921372989    1.63047801314420
H        -2.44367542549485   -1.41725540859359    0.90066851128258
H         2.07617216817595   -1.44331187218766   -1.11908716557923
O         2.30793530553439   -1.69597468771476   -0.20161227915476
H         1.51870234477028   -2.12344313439315    0.18236135597297
H        -1.38810327931757    1.82527181104579    1.91245782698487
O        -1.47991603378849    1.42780260062644    2.78857049684613
H        -1.46550735622119    2.14025189844227    3.45342687628048
H         0.21209351127888   -2.70348462509068   -1.56775963233970
O        -0.54352152832381   -2.09188812341975   -1.62279261823552
H        -0.36438215603889   -1.36534143351085   -0.98899387082905
H        -3.43331811306625   -2.92565322263254   -0.38942745526071
O        -2.71585557695997   -3.41779162487193   -0.80980807589323
H        -2.00580604337232   -2.78706434935635   -1.02825047064597
H         2.77514645764482    0.13002223207788    2.93513250324012
O         2.87431668335138   -0.05226894229760    3.89687499100940
H         2.96548240323669    0.84073253681195    4.30131158973221
H        -3.52714412085470    6.38004086502629   -0.54407098720201
O        -3.28880697621544    7.04251070820236   -1.24442090124598
H        -3.14712588731704    7.88771159510780   -0.77427602250850
H         3.90461641102641    0.58470578999913    1.18727709711625
O         2.95409568428696    0.40282403553255    1.30332316613987
H         2.71699960193209   -0.34966683936671    0.72399518817730
H        -5.77840917379145    0.84203295336744   -1.60431913851117
O        -4.86800116229211    1.16945366810661   -1.47809895340125
H        -4.97908754142461    1.99804858130535   -0.96681104228157
H        -1.20979951624042    5.39802462314143    2.20974163617542
O        -1.83455192840168    4.65068285179824    2.09320154843428
H        -1.91239568067742    4.23222489513487    2.95581525721086
H         3.49596303060940    2.76353562657814    0.42590354844728
O         3.24807308110561    2.72052179688105   -0.51326302678379
H         3.58078971773102    1.87789246295261   -0.86354459063437
H         1.49498592783106   -4.69734838067856   -2.24815669800468
O         1.55942241436856   -3.91994829333449   -1.67522839928121
H         2.35393575807853   -3.45869659137575   -2.02640422356503
H        -0.91873478259503   -0.08557956493126   -2.54715214898346
O        -0.28460449474737    0.56681317756747   -2.87146959461266
H        -0.02425763299850    1.14943990722659   -2.13472997449296
H         1.70267696382309   -4.68526822531141   -0.17664941914184
O         1.80972353687116   -5.32217132030728    0.56608674701668
H         1.34631542082376   -6.13341700369961    0.27029663126732
H        -1.22299995896713   -3.26635517391609   -2.87809922380279
O        -1.04944103784296   -3.94998583539545   -3.53859226067686
H        -0.92303724020351   -4.79673977485306   -3.06928499887286
H        -2.77861449370518    3.31015673429357    4.70451112629793
O        -1.79736384047247    3.30765080378842    4.67057792385257
H        -1.50457072345480    2.90605384965915    5.50691616682652
H         0.96380694840010    5.03612532994524    4.07572209390669
O         0.01770527442372    5.26822474044673    4.12788299043568
H        -0.45414044752481    4.46499594170000    4.38583742854341
H        -1.72695228412496   -4.65065413559033   -0.36934694606938
O        -0.96183862518384   -5.19148451001403   -0.08435568074641
H        -1.30943949646952   -5.87789130601496    0.49441069646618
H        -3.91551621431636    5.83145808345043   -2.59893551896465
O        -4.26620992058417    4.99728969399367   -2.92860607440746
H        -4.11114493483432    4.96223553673962   -3.89675348952158
H        -2.42754860370232   -3.68874813173855    1.93799829681250
O        -2.44587267093519   -4.59292928919224    2.31389877995475
H        -1.50608494392961   -4.83076061172349    2.45477752329354
H        -4.69219012377422   -2.98075276690795   -2.89724202720954
O        -3.83984171352397   -3.21368557471796   -3.30351648034086
H        -3.50870701294592   -4.00698569289880   -2.83782467935852
H         0.34157856551011    1.37854409869244    4.61560281963978
O         0.84757527692536    2.13859387598039    4.28170890486226
H         0.89620783576445    2.79777705354781    4.98838383929421
H        -4.65169962775069   -5.17075504119796   -1.56881813878699
O        -5.35366339219604   -4.81729315384386   -0.99526595816434
H        -5.14046877623278   -5.17126258899668   -0.11095174266569
H         2.33040852390808   -6.48286404938929   -4.03648768575850
O         1.99314340897668   -6.15383825524872   -3.18314919429717
H         2.42754743965320   -6.72730144247179   -2.51959677676224
H         0.47007711703305   -3.37992238046935   -4.00367239316463
O         1.27278938716922   -3.01315812358920   -4.42698199013300
H         0.95324475886829   -2.64172113507517   -5.27550656896987
H         1.96691595750369   -1.75176285345076    2.98340515575663
O         2.12213388522419   -2.68273871487180    2.76641829311848
H         1.43629230440386   -2.89655299198456    2.09944948355136
H        -3.01199765614301   -1.80998381375491   -3.20846070605159
O        -2.58991973941128   -0.92342756644705   -3.14386424880050
H        -3.24559812044132   -0.27796120297349   -3.46349618050701
H        -3.18848145426826    4.97597710279942    1.07932750725463
O        -3.97023882057225    5.34922809386971    0.62476039489536
H        -4.38547689350936    5.90717434262477    1.33081720336906
H         0.87829560999051    2.25464010984834    2.59147231119110
O         0.97915906246620    2.24970003404838    1.62025626521220
H         1.70630441411217    1.62666106020730    1.45623224655082
H         0.19224845684542    5.65699929520634   -0.75879785317140
O         0.71368016770832    6.31888076936923   -1.26787203337877
H         0.85569890944506    7.11882279170278   -0.71229756250960
H         0.34487816442679    7.03713174504871    2.58998248485967
O        -0.01731390910045    6.65637241653300    1.77276393563966
H         0.64678110160741    5.98580814568942    1.51143052201554
H        -2.47759236114008    0.21625512625022    3.34190883010350
O        -2.69928135319253   -0.59773558192101    3.84699236416414
H        -1.93871665098649   -0.63695342208331    4.46868914413311
H        -0.89160528318451    0.55569186883619    6.02615907003310
O        -0.61754553253984    0.03610055830053    5.25183273344110
H         0.09608148693244   -0.56719395372689    5.53862693665199
H         0.71301019826816   -4.99349866827565    1.98255881061797
O         0.17071471197116   -5.10285668932523    2.78703686346710
H         0.31537919912687   -6.02338188274301    3.05947416251633
H        -2.11538525314087   -8.08803349182419    0.45134769947294
O        -1.79308267619607   -7.59987715662933    1.23645796494240
H        -2.57943011509049   -7.28840138970007    1.69227267943984
H        -0.37779955189779    6.86364160963768   -2.32624890088678
O        -1.12444371557012    7.28327927190265   -2.82549202387749
H        -1.91426883243839    7.15690880188583   -2.26165413749644
H        -1.11147241527047    4.31001274533119    0.57376232398248
O        -0.73864953233765    4.37097106775202   -0.32238270701234
H        -1.44523554499807    4.12867988796619   -0.95465457329576
H        -4.40733170085962    2.74821109176067    3.50729942322803
O        -4.40588509289081    2.91881373983361    4.47185046271021
H        -4.48905361105945    2.03582817130488    4.88111923854783
H         2.02704625922821   -3.58085423649334    4.24614358561222
O         1.96347885950236   -4.05300990326834    5.09943297905057
H         2.47031590657478   -3.51602837183509    5.72999357459080
H         4.69059773249107   -3.19409840122802    0.84083837530209
O         4.53011786000465   -3.11881466785869   -0.12569223831130
H         3.67121326903885   -2.64147714545043   -0.20927242417210
H        -2.72015308524290   -0.74856567188162   -1.35072939087990
O        -3.04759019033914   -0.47847635789566   -0.47634878417729
H        -3.84812098607755    0.04724060309225   -0.68332869088337
H        -1.61427241932469   -0.76180711741161   -4.63034102228848
O        -1.10728531258250   -0.54609637364734   -5.43430831831692
H        -0.39755538800197    0.05054923656726   -5.14917652034342
H         1.79748253206220   -1.71542683390526   -3.37586172464496
O         1.88971375346248   -0.96845852617328   -2.75294388507927
H         1.11218392874990   -0.39153614534803   -2.88399706588418
H         3.66582708642222   -3.12142007192176    2.55234434000097
O         4.62486934097817   -3.35037798537194    2.47909359371788
H         4.67981043405205   -4.31041544306705    2.60634835776510
H         3.42915877648796   -6.12066795446734    3.12547491929647
O         3.78475788004329   -5.92010843043696    2.22517254313636
H         3.04723204230430   -5.57448323819267    1.68225644847721
H        -3.34169045675280    1.61004910511374   -4.17719745144653
O        -4.18661332410590    1.13943994532754   -3.98643635462811
H        -4.40407861179098    1.28522978212072   -3.02976404778271
H        -5.08059249795425    4.14761617581021    0.06648018402105
O        -5.51907388469481    3.28147745442519   -0.03657953094454
H        -6.44952129221428    3.40049424462711   -0.31828269622130
H         6.73638120285259   -1.18246966555711   -1.36203876443065
O         5.96428373606560   -1.03269637404903   -0.81005032632399
H         5.54523006025009   -1.90038910304099   -0.61238319770345
H         4.59631797739748   -3.16940688859434   -2.46902024739208
O         3.72837872398115   -2.99838935716275   -2.88496615029307
H         3.73186643876636   -3.61719351017446   -3.64108724131382
H         4.43791038489412   -2.29194808210493    5.62290703870802
O         4.09511498013189   -2.75726163280615    6.41624141072956
H         4.42996852687886   -3.66235586419049    6.33472852790931
H        -0.75208170465956    6.33945721924361    5.07449575099734
O        -1.34878268971594    6.91539869372036    5.61247862916419
H        -1.36236295919235    7.79231365885489    5.17071918751797
H         4.70082649153845   -0.13673687101673   -1.46566940311572
O         3.93342241039651    0.40554589097573   -1.72870700375648
H         3.24095860078546   -0.19518226864007   -2.05850086247634
H        -0.74090554100901    4.52262558228943   -4.03750779757275
O        -1.52360804725777    5.06557498664757   -4.24580399900424
H        -1.37224300761178    5.93235884005437   -3.82347103591763
H         0.66147245813109    3.20337048822147   -2.65806799522889
O         0.66856972238966    3.57975334086016   -3.56674289206976
H         0.71593529781164    2.81606356667977   -4.15192919572086
H        -5.38098787142147   -5.19301373830890    1.79663045767030
O        -4.68430981438279   -5.78788574686471    1.44157673966029
H        -3.84379438602071   -5.37180348798190    1.71199928732400
H         7.88318862605754   -1.69155701651359   -4.03323863208578
O         7.62557439953009   -1.37806199691168   -3.13362660513083
H         7.13862475748978   -0.53425575097864   -3.29029961189443
H         3.70307871144540   -5.07374929427957   -5.28833676340280
O         4.46570104408748   -4.70026997602546   -4.80756083382628
H         4.85023667260335   -5.41112529489829   -4.26160949758924
H        -3.78192021352108    0.01970968665322    4.93577779834193
O        -4.38249748209207    0.48388293266187    5.56848734956843
H        -5.04272140857570   -0.17412840746021    5.86045632878386
H         3.46719584893999   -5.94271664091475   -0.51774842678126
O         4.33982415439127   -5.69526452434685   -0.83556654355388
H         4.41583430163181   -4.73288435881566   -0.69200036240976
H         5.00218014880398   -0.33710735748648   -4.16015318824290
O         4.46687734734480   -1.04861340729297   -4.54980030946219
H         4.14097380384099   -1.63178780365969   -3.83170602374120
H        -1.17082881244098    1.57096101591494   -3.93616237493005
O        -1.82135166330921    2.19142455247606   -4.32195413230738
H        -1.46386312650939    2.52281967123192   -5.16838751880449
H         4.88737980012072   -6.32269414527215   -2.31301196228421
O         5.21996120644797   -6.64803967013527   -3.17863803753787
H         6.03820643248817   -7.12853040423808   -2.99210639839522
H         8.74226359642542   -5.09295232327830   -2.91697491114031
O         8.05145530546773   -5.51036709899021   -2.35785151623223
H         8.08570284920239   -6.46776753837377   -2.45977671094794
H         2.34006627803084    4.71993938137305    0.45090171349751
O         1.76091158524352    4.70223202085430    1.22214364128129
H         1.40351403645619    3.78195293313252    1.30013936193139
H        -4.41302163603821   -2.63305762958821    4.23337815680923
O        -5.30705695002600   -2.29367313761226    4.03097531507354
H        -5.17029614368126   -1.51272004729857    3.45516363956940
H        -5.84402977320599   -3.19518694437061    1.31964515698373
O        -6.30664215955135   -3.75207513761803    1.98826014796788
H        -6.11809716192843   -3.31629207114376    2.83863044517463
H         1.68883849708710    3.47113333552572    6.86218792997778
O         1.06571750397470    3.98634418095331    6.32821383344325
H         0.28284104918551    4.13965339807529    6.89989068033788
H         5.00340612049895   -2.16793084470717    3.61706180268238
O         5.02386336219584   -1.44942431520031    4.28089421046228
H         4.21193705058982   -0.89328692457569    4.12410915585161
H         2.39311183984983   -5.57499587244001    4.84075762092936
O         2.77306057219973   -6.45898426866788    4.58106489971135
H         2.02794818802499   -7.04054339481379    4.40744564041045
H         2.25833089478715   -4.51851858425348   -6.78843914650662
O         2.08936560290867   -5.00643610152793   -5.97250288453354
H         1.82488488197609   -4.31486545290816   -5.31736279144009
H         6.44166654825426   -4.10354854162647   -0.50158278469093
O         7.19507889109000   -4.50624579015427   -0.03836048585522
H         7.70241872690478   -4.92903066264243   -0.75909277906813
H        -1.72294180078235    4.49267447469768    7.70069175694793
O        -0.82405016124259    4.59106642473800    8.08596697219403
H        -0.64323329582888    5.55026014535959    8.10993098642378
H        -5.11773276005665    5.69185677478439   -5.59697825595811
O        -4.51002859276157    4.92843827302717   -5.61706154346154
H        -3.75286973018496    5.14276625470047   -6.18319832011495
H         3.28214171190988   -2.53027333751179   -8.43593633628444
O         3.19457186828973   -3.06255564277392   -7.63438228465229
H         4.07124934255023   -3.03814659694207   -7.20563623347519
H        -0.65907597674873    8.82637988731384   -2.28055344748990
O        -0.53607358840941    9.65519659968872   -1.76224077405420
H         0.22624705809147    9.48111303647239   -1.18544458486698
H         2.06877379566300   -0.91051084347747    5.21251691935567
O         1.49613404712191   -1.43623896957185    5.80023292336561
H         1.59011966141873   -1.09061396702608    6.69731920879280
H         5.20688103284362   -2.02624433134043   -5.69234014296770
O         5.55270060370996   -2.79268241276686   -6.21436214208770
H         5.27918754919211   -3.58244310218567   -5.69633900080903
H         5.69744629823840   -5.21327905280530    4.68807240794000
O         5.17553871161743   -5.12828810940553    5.51496265454934
H         4.45396001158707   -5.76024209666879    5.42966815692762
H        -3.97195968709663    1.14877224735553    7.00795161884659
O        -3.77977408650397    1.62492412020768    7.85157855530488
H        -4.65587896661264    2.01056517486846    8.11236074338887
H        -1.85032664606231    9.61483325254187   -0.74824635478067
O        -2.71062716338164    9.48856141210710   -0.27350136826310
H        -3.32202483255872   10.11665553234454   -0.66165852225306
H        -5.94748132567518    4.68864369780944   -2.93890268975309
O        -6.85617427435240    4.56929165073402   -3.28294773980045
H        -6.76570058267624    3.86655876035196   -3.95967088919641
H         0.09619583286924   -7.06483382582219   -1.13977843743462
O         0.56066877548379   -7.50042789053574   -0.39208703246588
H        -0.11833473014762   -7.69507858063697    0.25701154938496
H        -7.63642726445135    3.79055588466822   -1.97333978122374
O        -7.89768316248772    3.20394770271704   -1.23294337275472
H        -7.75454880900520    2.29509479792116   -1.57204007884238
H         3.97605109297182   -0.88973619519072    6.98714873441878
O         3.98449777912614    0.07442704162783    6.97769336201052
H         4.79674630955835    0.36428171372741    6.54595056932544
H         2.25942270277099    5.79625207254742   -1.18143540405491
O         3.19497138915386    5.50356553527033   -1.06711500038084
H         3.37155791484088    4.96316230560414   -1.86012621217927
H         6.55238306175424   -5.92934212126306    0.67416033866354
O         6.18420917601768   -6.66560263059066    1.20824247137615
H         5.27951556331087   -6.38887329760030    1.43499179008781
H        -3.86656670517302    4.73240182184888    7.78039326222560
O        -3.29990989493462    4.26941617273651    7.12155216530223
H        -3.49325134413703    3.32602040505971    7.23237041253878
H         5.76465072022023   -7.94558495631803    0.14122239438008
O         5.47741623413207   -8.63267218862646   -0.49663206624283
H         4.64777326000317   -8.30774995674122   -0.89035790921071
H        -0.55529686129441    2.04516657377370    7.69354987782449
O        -1.18865758082758    1.98014170891261    6.95863529836171
H        -2.05705702536634    1.83867457221236    7.35543163260310
H        -6.38115755156212   -0.12067317331326    1.06420132290441
O        -6.70166400782337   -0.20470160319359    0.15144483304000
H        -7.62038512438964   -0.47549916114513    0.16988740212929
H        -5.37056642225918   -3.06385904679487   -0.58550955195741
O        -5.11829583655526   -2.36144560752278    0.04000062441313
H        -5.68835993542328   -1.58863823841903   -0.14778085686957
H         4.31871260576579    5.57839340920049    0.31821586293227
O         4.65285600422049    5.67956678053426    1.22328233631067
H         3.95831572579442    6.18982291874720    1.67551592435934
H        -9.04293881454110   -1.74563496759897   -2.25031015627736
O        -8.49491231288002   -1.54376515095012   -1.46449213126092
H        -8.62197997891203   -2.28014045756975   -0.82644632187551
H        -5.52425727818376    3.46901441651008   -5.52734235214368
O        -6.04144332893490    2.75848942434996   -5.11219090315916
H        -5.37473794443209    2.17327647332959   -4.69827750891773
H         3.18079478689763   -0.89050664579691   -5.65452742937634
O         2.32487060580974   -1.01075944444809   -6.12029997771902
H         2.41034126366728   -1.86007809383948   -6.59316722907038
H         8.11465321096755   -1.35194636756164   -6.02917895639636
O         8.12312041056417   -2.21580151176783   -5.57247451305489
H         7.26685136924766   -2.61591035627473   -5.82255176301298
H         7.62077364521316    0.98832656511418   -6.31087287702051
O         7.43185096364128    0.13991421912220   -6.72389717204238
H         6.45049233547557    0.08977461838436   -6.75973950184186
H        -7.85907178131342   -3.69183371695787    0.93371980356761
O        -8.53764943879933   -3.58536084365986    0.24943374084159
H        -8.43942865360728   -4.34506450751873   -0.35190218840526
H        -2.40645997322047    8.73793185885254    1.29067691029250
O        -2.25540275493286    8.14980124267091    2.04398436508517
H        -1.48524970689498    7.59665704713600    1.82123534063001
H        -4.44247372450293    6.43766465027562    3.49590845869286
O        -4.61296618537095    6.86319962038512    2.63922282029355
H        -3.84966718745368    7.44919142132522    2.49916174876496
H         3.40123709587090    3.44527176047747   -3.57838661514242
O         3.24794523349469    4.41459815853901   -3.48569754812504
H         2.28300406061595    4.47913091396101   -3.59283548566637
H        -6.11507512891927   -1.60669680502452   -3.43951606319928
O        -6.19779780943042   -2.18562191190267   -2.65527034647963
H        -6.98168066499655   -1.87818184000327   -2.14660044215802
H         6.46979133793428    1.05245166081230    4.73881889809732
O         6.07588812006449    1.59136078120711    5.44173239767958
H         6.26340623618949    2.51000511111888    5.15024283723770
H         1.36158601209290    1.72004182491469   -5.82277922592662
O         1.16730489206047    1.12462973354712   -5.06811571486937
H         1.53061147431091    0.26137187432762   -5.33755478412130
H        -2.48672550378042    2.96853678100606   10.48412544305249
O        -2.27450320376192    2.06081063587909   10.21123398409310
H        -2.87226526962000    1.86078795028798    9.47900283223898
H         7.62937908285150   -0.49574131808716    3.08329668286035
O         6.87916815754176    0.07970341943702    3.25194642321129
H         6.18708777989882   -0.52069997296269    3.63164298752786
H        -5.65793389271747   -8.05407904518264   -0.69539532116716
O        -4.92292520442949   -8.12247760622706   -0.04912673906157
H        -4.92662694905651   -7.30494299260522    0.47246831144605
H        -5.17729142517399   -0.12033204580671   -4.71325938224873
O        -5.79430553198262   -0.83230070395427   -4.95264250245318
H        -6.63256982306688   -0.39082865361742   -5.15070094207293
H         1.88953044370036   -0.20127289544574   -7.51437235991771
O         1.68777877983572    0.27017767397266   -8.35848342490425
H         2.26434616026939   -0.13539640108176   -9.01146977083345
H         4.87158365457738   -1.39645844111211   -9.30341633421347
O         3.94625318116274   -1.16821056702340   -9.58562486580623
H         3.92610995330411   -1.28611829013436  -10.53465658006686
H         7.56523635465946   -2.56835426294175    4.20094113036971
O         7.71293069537996   -2.60576372579087    3.24165065562624
H         7.21857460853410   -3.39612845995176    2.97022498915204
H         6.72239481158630   -5.89360111624546    2.68746431035480
O         6.78429080037440   -5.21791036767764    3.38811264528613
H         7.66013428426405   -5.30296478231791    3.80604222956199
H        -1.81965375038802    8.94998098805000    3.49439626898465
O        -1.57188071022807    9.25515924514036    4.39256294627623
H        -2.42063752366540    9.38773419179626    4.84808542543363
H        -7.39023863967808    1.56581418069249   -5.24895487353868
O        -7.96492831611161    0.82174067284826   -5.00339142735554
H        -8.86668124303336    1.22130570721024   -4.92747768646334
H         6.92544705797479   -1.08639800515317   -8.40425986718414
O         6.34355207639660   -1.80765049254635   -8.66751373864745
H         6.11584447361157   -2.25714060539240   -7.83530245335247
H        -1.67723235504279    6.23884396929144   -7.02396799481107
O        -2.07494802427638    5.41364075696308   -6.74996574091040
H        -1.82634149100663    5.28330703010236   -5.78629097640932
H         0.00313772996172    3.31595838702434    9.02295153159900
O         0.20022150981095    2.39631721885139    9.27849577102861
H        -0.59799767094420    2.13246037199549    9.78528544493833
H         6.75661280961435   -2.78072897405234   -2.70402301104862
O         6.22653518200965   -3.52491029178778   -2.36229307558494
H         6.69529028350128   -4.33571939791109   -2.60837080869823
H        -4.07754001000979   -3.07476013184716   -4.94016497821231
O        -4.23172878452857   -2.96255287168154   -5.90502489039576
H        -4.77929689533404   -2.16973068604433   -5.96148115056569
H         1.98253602705670    2.18849135413208    8.46527006536626
O         2.64599047905765    2.30060724786554    7.77477102269424
H         3.06861514351452    1.43047654943178    7.65998758388810
H        -6.90700403935801   -5.20147356288942   -1.39046039094971
O        -7.82259346481697   -5.47124544667247   -1.63571596462969
H        -7.95640456725602   -5.06914048764149   -2.51884733213646
H        -3.82554810425561    5.25994192439558    5.69663977104449
O        -3.79296639496661    6.02809016934968    5.10545980488500
H        -2.85899745088174    6.32257681899029    5.19921040284906
H        -7.88444834547025    0.08774579655395   -1.96351863187166
O        -7.39489000757886    0.81121525302080   -2.37755548000656
H        -7.62331860324817    0.79959637446621   -3.33075242836744
H         5.83857075815862    0.13086252729374    0.41203324111146
O         5.61670972938132    0.85276351087233    1.03247489175161
H         6.12710791847665    0.65816994310720    1.84544630534939
H        -6.21314243870549    3.31588387512184    7.39717359072914
O        -6.08511984796711    2.79804526889428    8.22605697450682
H        -6.68536426281917    2.03664905604297    8.13821915575065
H         2.27963025375066   -8.07363359124369   -0.83700515681876
O         2.95611802669936   -8.06112382045441   -1.53374142872465
H         2.73112125718307   -8.77572987031392   -2.14621006478097
H        -2.74485671224181   -3.96400899460286   -6.19335010939483
O        -1.99111883450427   -4.53005797259019   -5.96141093684711
H        -1.71463542449593   -4.23789465688675   -5.06449994554695
H        -5.64208237535760    3.76519231652812    5.30991296984204
O        -6.29104156462930    4.16202665801507    5.92709035354908
H        -6.12749839981034    5.10606865704988    5.91315611290795
H        -1.01806458673319   -7.11522315944668   -3.15806282205783
O        -0.54557656657510   -6.44505905664212   -2.63040508879568
H         0.36190462515902   -6.37602170259684   -3.01133341562971
H         4.44646772979945    2.02026664499654    5.12865084050252
O         3.50474449694056    2.25931254276646    5.00856760061305
H         3.12065618933071    2.27618010560341    5.89053408372488
H         4.11148861391351    4.66149955757400    6.29949408335537
O         4.19217054356521    5.39135685819783    5.68104633431991
H         3.62460356504500    5.15021509814808    4.91029129925539
H         2.76640796524732    3.62052130022484    3.92214289338173
O         2.58878480121534    4.56052373504813    3.75568372580132
H         2.46898698896800    4.65851104182124    2.78923387260578
H         9.39427274034326    0.21094552309021   -1.07176038925961
O         8.58846963330091    0.37441803424120   -0.57803976723604
H         8.41247664735845   -0.44412765821987   -0.08450482278619
H        -2.09827747503055    5.32769138321964   10.65016767532060
O        -2.82019115080364    4.69922761479996   10.88206311529633
H        -3.03841448414798    4.87710435874436   11.79714598767964
H         7.97403228355646   -3.00848245349352    0.32917683338771
O         8.39547298260140   -2.16180934462030    0.58376232399345
H         8.32941432812773   -2.15616759711101    1.54605798745024
H         5.37229700686466    3.66776316920925    3.52376568272117
O         6.02872269530882    3.93367717580366    4.18961195880384
H         5.61602964557218    4.65187145455379    4.69113266819952
H        -4.20664253910290    5.02916898481508    9.78487974800021
O        -4.83995050715280    5.17963649432785    9.06295392567485
H        -5.45168001573424    4.43090321169967    9.06103299998385
H        -7.01067660600687   -3.47885494458505   -3.48069266152340
O        -7.63126678188860   -4.09100082235896   -3.92859756789698
H        -7.11033618309581   -4.53347839896325   -4.63062472388986
H         0.03022835599886    6.13603409829292   10.76946049289996
O        -0.83439030149517    6.46745361650105   10.52233656969190
H        -0.71886172483305    6.89741563215935    9.65568536385315
H         2.58933099392201    1.49445288121926   -4.10511546429482
O         3.46786430103884    1.84723981980065   -3.86705787924360